# vtk DataFile Version 5.1
vtk output
ASCII
DATASET STRUCTURED_POINTS
DIMENSIONS 8 8 8
SPACING 1 1 1
ORIGIN 0 0 0
POINT_DATA 512
COLOR_SCALARS scalars 1
0.0 0.013373567608452763 0.02961630027723548 0.04125536548063476 0.04125536548063476 0.02961630027723548 0.013373567608452763 0.0 0.013373567608452763 0.04125536548063476 0.07511892398813763 0.0993845554877843 0.0993845554877843 0.0751189239881377 0.04125536548063476 0.013373567608452763 0.02961630027723548 0.07511892398813763 0.1303836801327325 0.16998478133494216 0.16998478133494216 0.1303836801327325 0.07511892398813763 0.02961630027723548 0.04125536548063476 0.0993845554877843 0.16998478133494216 0.22057482974404236 0.22057482974404236 0.16998478133494227 0.0993845554877843 0.04125536548063476 0.04125536548063476 0.0993845554877843 0.16998478133494216 0.22057482974404236 0.22057482974404236 0.16998478133494227 0.0993845554877843 0.04125536548063476 0.02961630027723548 0.07511892398813763 0.1303836801327325 0.16998478133494227 0.16998478133494227 0.13038368013273263 0.0751189239881377 0.02961630027723548 0.013373567608452763 0.04125536548063476 0.07511892398813763 0.0993845554877843 0.0993845554877843 0.0751189239881377 0.04125536548063476 0.013373567608452763 0.0 0.013373567608452763 0.02961630027723548 0.04125536548063476 0.04125536548063476 0.02961630027723548 0.013373567608452763 0.0 0.013373567608452763 0.04125536548063476 0.07511892398813763 0.0993845554877843 0.0993845554877843 0.0751189239881377 0.04125536548063476 0.013373567608452763 0.04125536548063476 0.0993845554877843 0.16998478133494216 0.22057482974404236 0.22057482974404236 0.16998478133494227 0.0993845554877843 0.04125536548063476 0.07511892398813763 0.16998478133494216 0.28520315876364744 0.36776526422142786 0.36776526422142786 0.2852031587636476 0.16998478133494216 0.07511892398813763 0.0993845554877843 0.22057482974404236 0.36776526422142786 0.4732376067842976 0.4732376067842976 0.3677652642214279 0.22057482974404236 0.0993845554877843 0.0993845554877843 0.22057482974404236 0.36776526422142786 0.4732376067842976 0.4732376067842976 0.3677652642214279 0.22057482974404236 0.0993845554877843 0.07511892398813763 0.16998478133494227 0.2852031587636476 0.3677652642214279 0.3677652642214279 0.2852031587636476 0.16998478133494227 0.07511892398813763 0.04125536548063476 0.0993845554877843 0.16998478133494227 0.22057482974404236 0.22057482974404236 0.16998478133494227 0.0993845554877843 0.04125536548063476 0.013373567608452763 0.04125536548063476 0.07511892398813763 0.0993845554877843 0.0993845554877843 0.0751189239881377 0.04125536548063476 0.013373567608452763 0.02961630027723548 0.07511892398813763 0.1303836801327325 0.16998478133494216 0.16998478133494216 0.1303836801327325 0.07511892398813763 0.02961630027723548 0.07511892398813763 0.16998478133494216 0.28520315876364744 0.36776526422142786 0.36776526422142786 0.2852031587636476 0.16998478133494216 0.07511892398813763 0.1303836801327325 0.28520315876364744 0.4732376067842976 0.6079775699189347 0.6079775699189348 0.4732376067842978 0.2852031587636476 0.1303836801327325 0.16998478133494216 0.36776526422142786 0.6079775699189347 0.7801066534718257 0.780106653471826 0.6079775699189348 0.3677652642214279 0.16998478133494216 0.16998478133494216 0.3677652642214279 0.6079775699189348 0.780106653471826 0.7801066534718261 0.6079775699189348 0.3677652642214279 0.16998478133494216 0.1303836801327325 0.2852031587636476 0.4732376067842978 0.6079775699189348 0.6079775699189348 0.47323760678429794 0.2852031587636476 0.1303836801327325 0.07511892398813763 0.16998478133494227 0.2852031587636476 0.3677652642214279 0.3677652642214279 0.2852031587636476 0.16998478133494227 0.07511892398813763 0.02961630027723548 0.07511892398813763 0.1303836801327325 0.16998478133494216 0.16998478133494216 0.1303836801327325 0.07511892398813763 0.02961630027723548 0.04125536548063476 0.0993845554877843 0.16998478133494216 0.22057482974404236 0.22057482974404236 0.16998478133494227 0.0993845554877843 0.04125536548063476 0.0993845554877843 0.22057482974404236 0.36776526422142786 0.4732376067842976 0.4732376067842976 0.3677652642214279 0.22057482974404236 0.0993845554877843 0.16998478133494216 0.36776526422142786 0.6079775699189347 0.7801066534718257 0.780106653471826 0.6079775699189348 0.3677652642214279 0.16998478133494216 0.22057482974404236 0.4732376067842976 0.7801066534718257 0.9999999999999998 0.9999999999999999 0.7801066534718262 0.4732376067842978 0.22057482974404236 0.22057482974404236 0.4732376067842978 0.780106653471826 0.9999999999999999 0.9999999999999999 0.7801066534718262 0.4732376067842978 0.22057482974404236 0.16998478133494227 0.3677652642214279 0.6079775699189348 0.7801066534718261 0.7801066534718262 0.607977569918935 0.367765264221428 0.16998478133494227 0.0993845554877843 0.22057482974404236 0.3677652642214279 0.4732376067842978 0.4732376067842978 0.367765264221428 0.22057482974404236 0.0993845554877843 0.04125536548063476 0.0993845554877843 0.16998478133494216 0.22057482974404236 0.22057482974404236 0.16998478133494227 0.0993845554877843 0.04125536548063476 0.04125536548063476 0.0993845554877843 0.16998478133494216 0.22057482974404236 0.22057482974404236 0.16998478133494227 0.0993845554877843 0.04125536548063476 0.0993845554877843 0.22057482974404236 0.36776526422142786 0.4732376067842976 0.4732376067842976 0.3677652642214279 0.22057482974404236 0.0993845554877843 0.16998478133494216 0.3677652642214279 0.6079775699189348 0.780106653471826 0.7801066534718261 0.6079775699189348 0.3677652642214279 0.16998478133494216 0.22057482974404236 0.4732376067842978 0.780106653471826 0.9999999999999999 0.9999999999999999 0.7801066534718262 0.4732376067842978 0.22057482974404236 0.22057482974404236 0.4732376067842978 0.780106653471826 0.9999999999999999 1.0 0.7801066534718262 0.4732376067842978 0.22057482974404236 0.16998478133494227 0.3677652642214279 0.6079775699189348 0.7801066534718262 0.7801066534718262 0.607977569918935 0.3677652642214282 0.16998478133494227 0.0993845554877843 0.22057482974404236 0.3677652642214279 0.4732376067842978 0.4732376067842978 0.367765264221428 0.22057482974404236 0.0993845554877843 0.04125536548063476 0.0993845554877843 0.16998478133494216 0.22057482974404236 0.22057482974404236 0.16998478133494227 0.0993845554877843 0.04125536548063476 0.02961630027723548 0.07511892398813763 0.1303836801327325 0.16998478133494227 0.16998478133494227 0.13038368013273263 0.0751189239881377 0.02961630027723548 0.07511892398813763 0.16998478133494227 0.2852031587636476 0.3677652642214279 0.3677652642214279 0.2852031587636476 0.16998478133494227 0.07511892398813763 0.1303836801327325 0.2852031587636476 0.4732376067842978 0.6079775699189348 0.6079775699189348 0.47323760678429794 0.2852031587636476 0.1303836801327325 0.16998478133494227 0.3677652642214279 0.6079775699189348 0.7801066534718261 0.7801066534718262 0.607977569918935 0.367765264221428 0.16998478133494227 0.16998478133494227 0.3677652642214279 0.6079775699189348 0.7801066534718262 0.7801066534718262 0.607977569918935 0.3677652642214282 0.16998478133494227 0.1303836801327325 0.2852031587636477 0.47323760678429794 0.607977569918935 0.607977569918935 0.47323760678429805 0.2852031587636477 0.1303836801327325 0.07511892398813763 0.16998478133494227 0.2852031587636476 0.367765264221428 0.367765264221428 0.2852031587636477 0.16998478133494227 0.07511892398813763 0.02961630027723548 0.07511892398813763 0.1303836801327325 0.16998478133494227 0.16998478133494227 0.13038368013273263 0.0751189239881377 0.02961630027723548 0.013373567608452763 0.04125536548063476 0.07511892398813763 0.0993845554877843 0.0993845554877843 0.0751189239881377 0.04125536548063476 0.013373567608452763 0.04125536548063476 0.0993845554877843 0.16998478133494227 0.22057482974404236 0.22057482974404236 0.16998478133494227 0.0993845554877843 0.04125536548063476 0.07511892398813763 0.16998478133494227 0.2852031587636476 0.3677652642214279 0.3677652642214279 0.2852031587636476 0.16998478133494227 0.07511892398813763 0.0993845554877843 0.22057482974404236 0.3677652642214279 0.4732376067842978 0.4732376067842978 0.367765264221428 0.22057482974404236 0.0993845554877843 0.0993845554877843 0.22057482974404236 0.3677652642214279 0.4732376067842978 0.4732376067842978 0.367765264221428 0.22057482974404236 0.0993845554877843 0.07511892398813763 0.16998478133494227 0.2852031587636476 0.367765264221428 0.367765264221428 0.2852031587636477 0.16998478133494227 0.07511892398813763 0.04125536548063476 0.0993845554877843 0.16998478133494227 0.22057482974404236 0.22057482974404236 0.16998478133494227 0.0993845554877843 0.04125536548063476 0.013373567608452763 0.04125536548063476 0.07511892398813763 0.0993845554877843 0.0993845554877843 0.0751189239881377 0.04125536548063476 0.013373567608452763 0.0 0.013373567608452763 0.02961630027723548 0.04125536548063476 0.04125536548063476 0.02961630027723548 0.013373567608452763 0.0 0.013373567608452763 0.04125536548063476 0.07511892398813763 0.0993845554877843 0.0993845554877843 0.0751189239881377 0.04125536548063476 0.013373567608452763 0.02961630027723548 0.07511892398813763 0.1303836801327325 0.16998478133494216 0.16998478133494216 0.1303836801327325 0.07511892398813763 0.02961630027723548 0.04125536548063476 0.0993845554877843 0.16998478133494216 0.22057482974404236 0.22057482974404236 0.16998478133494227 0.0993845554877843 0.04125536548063476 0.04125536548063476 0.0993845554877843 0.16998478133494216 0.22057482974404236 0.22057482974404236 0.16998478133494227 0.0993845554877843 0.04125536548063476 0.02961630027723548 0.07511892398813763 0.1303836801327325 0.16998478133494227 0.16998478133494227 0.13038368013273263 0.0751189239881377 0.02961630027723548 0.013373567608452763 0.04125536548063476 0.07511892398813763 0.0993845554877843 0.0993845554877843 0.0751189239881377 0.04125536548063476 0.013373567608452763 0.0 0.013373567608452763 0.02961630027723548 0.04125536548063476 0.04125536548063476 0.02961630027723548 0.013373567608452763 0.0
